7
 energy: -14.622829870978 gnorm: 0.000682255282 xtb: 6.6.1 (unknown)
C            1.06165171077677        0.07102473323736        0.06654348871082
N            2.53101250510502        0.08646024028269        0.06731728220287
O            3.09792933704652       -0.97564832313122        0.01532365583917
O            3.06511290546829        1.16600011215888        0.12009762971986
H            0.71198336812476       -0.95729351465121        0.01622767721152
H            0.70630295831782        0.64240681742382       -0.78961070692126
H            0.70628721516081        0.55609993467967        0.97438097323703
