7
 energy: -14.619732656028 gnorm: 0.066490519025 xtb: 6.6.1 (unknown)
C            1.04361000000000        0.07607000000000        0.06679000000000
N            2.53098000000000        0.09004000000000        0.06747000000000
O            3.10815000000000       -1.00232000000000        0.01403000000000
O            3.07772000000000        1.19810000000000        0.12168000000000
H            0.69936000000000       -0.95911000000000        0.01614000000000
H            0.71023000000000        0.63720000000000       -0.80853000000000
H            0.71023000000000        0.54907000000000        0.99270000000000
7
 energy: -14.622629247248 gnorm: 0.017622576406 xtb: 6.6.1 (unknown)
C            1.05524742067091        0.07364885732849        0.06667040201713
N            2.52969914089450        0.08723092271167        0.06733598929435
O            3.09961138953397       -0.98193601309570        0.01502565527957
O            3.06778929027426        1.17291541678288        0.12044641245376
H            0.71155341221521       -0.95746354825999        0.01621989171162
H            0.70819048234629        0.64073559063762       -0.79492166644701
H            0.70818886406486        0.55391877389504        0.97950331569057
7
 energy: -14.622826163516 gnorm: 0.002530184191 xtb: 6.6.1 (unknown)
C            1.06129484789501        0.07123674252485        0.06654998714306
N            2.53087668422981        0.08654530002388        0.06729038726284
O            3.09762076493112       -0.97465424997316        0.01538790583522
O            3.06518429637012        1.16503153916536        0.12006780006142
H            0.71228715771675       -0.95725598968241        0.01623096037081
H            0.70650427649170        0.64222584824456       -0.78961281548095
H            0.70651197236550        0.55592080969692        0.97436577480760
7
 energy: -14.622829870945 gnorm: 0.000681479582 xtb: 6.6.1 (unknown)
C            1.06165171077677        0.07102473323736        0.06654348871082
N            2.53101250510502        0.08646024028269        0.06731728220287
O            3.09792933704652       -0.97564832313122        0.01532365583917
O            3.06511290546829        1.16600011215888        0.12009762971986
H            0.71198336812476       -0.95729351465121        0.01622767721152
H            0.70630295831782        0.64240681742382       -0.78961070692126
H            0.70628721516081        0.55609993467967        0.97438097323703
