7
 energy: -14.622853210286 gnorm: 0.000761824344 xtb: 6.5.1 (unknown)
C           -0.62851241429293       -0.03769065324547       -0.08332212347988
N            0.82775473015872        0.04705195165539        0.08792319439111
O            1.42723467929366       -0.98982338766915        0.22219700641604
O            1.31727395260163        1.14828083676345        0.09774891070976
H           -0.88341231972911       -0.99638758609813       -0.52928793746358
H           -0.96852676697641        0.79437620493172       -0.69601907145982
H           -1.09181186105555        0.03418263366219        0.90076002088638
