7
 energy: -14.622853239554 gnorm: 0.000750798536 xtb: 6.7.1pre (5071a88)
C           -0.62849075105468       -0.03770257532682       -0.08348234922040
N            0.82773109731993        0.04708855405101        0.08810225955622
O            1.42708279456848       -0.98972137579971        0.22353342720149
O            1.31734059794099        1.14828659716394        0.09707372094761
H           -0.88326511632342       -0.99640800290498       -0.52950194351371
H           -0.96840939288300        0.79435611960669       -0.69623896737461
H           -1.09198922956830        0.03409068320987        0.90051385240340
