      -----------------------------------------------------------      
     |                   =====================                   |     
     |                           x T B                           |     
     |                   =====================                   |     
     |                         S. Grimme                         |     
     |          Mulliken Center for Theoretical Chemistry        |     
     |                    University of Bonn                     |     
      -----------------------------------------------------------      

   * xtb version 6.6.1 (unknown) compiled by 'builduser@buildhost' on 2023-08-07

   xtb is free software: you can redistribute it and/or modify it under
   the terms of the GNU Lesser General Public License as published by
   the Free Software Foundation, either version 3 of the License, or
   (at your option) any later version.
   
   xtb is distributed in the hope that it will be useful,
   but WITHOUT ANY WARRANTY; without even the implied warranty of
   MERCHANTABILITY or FITNESS FOR A PARTICULAR PURPOSE.  See the
   GNU Lesser General Public License for more details.
   
   Cite this work as:
   * C. Bannwarth, E. Caldeweyher, S. Ehlert, A. Hansen, P. Pracht,
     J. Seibert, S. Spicher, S. Grimme, WIREs Comput. Mol. Sci., 2020, 11,
     e01493. DOI: 10.1002/wcms.1493
   
   for GFN2-xTB:
   * C. Bannwarth, S. Ehlert and S. Grimme., J. Chem. Theory Comput., 2019,
     15, 1652-1671. DOI: 10.1021/acs.jctc.8b01176
   for GFN1-xTB:
   * S. Grimme, C. Bannwarth, P. Shushkov, J. Chem. Theory Comput., 2017,
     13, 1989-2009. DOI: 10.1021/acs.jctc.7b00118
   for GFN0-xTB:
   * P. Pracht, E. Caldeweyher, S. Ehlert, S. Grimme, ChemRxiv, 2019, preprint.
     DOI: 10.26434/chemrxiv.8326202.v1
   for GFN-FF:
   * S. Spicher and S. Grimme, Angew. Chem. Int. Ed., 2020, 59, 15665-15673.
     DOI: 10.1002/anie.202004239
   
   for ALPB and GBSA implicit solvation:
   * S. Ehlert, M. Stahn, S. Spicher, S. Grimme, J. Chem. Theory Comput.,
     2021, 17, 4250-4261. DOI: 10.1021/acs.jctc.1c00471
   
   for DFT-D4:
   * E. Caldeweyher, C. Bannwarth and S. Grimme, J. Chem. Phys., 2017,
     147, 034112. DOI: 10.1063/1.4993215
   * E. Caldeweyher, S. Ehlert, A. Hansen, H. Neugebauer, S. Spicher,
     C. Bannwarth and S. Grimme, J. Chem. Phys., 2019, 150, 154122.
     DOI: 10.1063/1.5090222
   * E. Caldeweyher, J.-M. Mewes, S. Ehlert and S. Grimme, Phys. Chem. Chem. Phys.
     2020, 22, 8499-8512. DOI: 10.1039/D0CP00502A
   
   for sTDA-xTB:
   * S. Grimme and C. Bannwarth, J. Chem. Phys., 2016, 145, 054103.
     DOI: 10.1063/1.4959605
   
   in the mass-spec context:
   * V. Asgeirsson, C. Bauer and S. Grimme, Chem. Sci., 2017, 8, 4879.
     DOI: 10.1039/c7sc00601b
   * J. Koopman and S. Grimme, ACS Omega 2019, 4, 12, 15120-15133.
     DOI: 10.1021/acsomega.9b02011
   
   for metadynamics refer to:
   * S. Grimme, J. Chem. Theory Comput., 2019, 155, 2847-2862
     DOI: 10.1021/acs.jctc.9b00143
   
   for SPH calculations refer to:
   * S. Spicher and S. Grimme, J. Chem. Theory Comput., 2021, 17, 1701-1714
     DOI: 10.1021/acs.jctc.0c01306
   
   with help from (in alphabetical order)
   P. Atkinson, C. Bannwarth, F. Bohle, G. Brandenburg, E. Caldeweyher
   M. Checinski, S. Dohm, S. Ehlert, S. Ehrlich, I. Gerasimov, C. Hölzer
   A. Katbashev, J. Koopman, C. Lavigne, S. Lehtola, F. März, M. Müller,
   F. Musil, H. Neugebauer, J. Pisarek, C. Plett, P. Pracht, F. Pultar,
   J. Seibert, P. Shushkov, S. Spicher, M. Stahn, M. Steiner, T. Strunk,
   J. Stückrath, T. Rose, and J. Unsleber
   
 * started run on 2025/06/26 at 20:02:04.416     

           -------------------------------------------------
          |                Calculation Setup                |
           -------------------------------------------------

          program call               : xtb IAM_Results/methane_test.xyz --gfn 2
          coordinate file            : IAM_Results/methane_test.xyz
          omp threads                :                    16

   ID    Z sym.   atoms
    1    6 C      1
    2    1 H      2-5

           -------------------------------------------------
          |                 G F N 2 - x T B                 |
           -------------------------------------------------

        Reference                      10.1021/acs.jctc.8b01176
      * Hamiltonian:
        H0-scaling (s, p, d)           1.850000    2.230000    2.230000
        zeta-weighting                 0.500000
      * Dispersion:
        s8                             2.700000
        a1                             0.520000
        a2                             5.000000
        s9                             5.000000
      * Repulsion:
        kExp                           1.500000    1.000000
        rExp                           1.000000
      * Coulomb:
        alpha                          2.000000
        third order                    shell-resolved
        anisotropic                    true
        a3                             3.000000
        a5                             4.000000
        cn-shift                       1.200000
        cn-exp                         4.000000
        max-rad                        5.000000


          ...................................................
          :                      SETUP                      :
          :.................................................:
          :  # basis functions                   8          :
          :  # atomic orbitals                   8          :
          :  # shells                            6          :
          :  # electrons                         8          :
          :  max. iterations                   250          :
          :  Hamiltonian                  GFN2-xTB          :
          :  restarted?                      false          :
          :  GBSA solvation                  false          :
          :  PC potential                    false          :
          :  electronic temp.          300.0000000     K    :
          :  accuracy                    1.0000000          :
          :  -> integral cutoff          0.2500000E+02      :
          :  -> integral neglect         0.1000000E-07      :
          :  -> SCF convergence          0.1000000E-05 Eh   :
          :  -> wf. convergence          0.1000000E-03 e    :
          :  Broyden damping             0.4000000          :
          ...................................................

 iter      E             dE          RMSdq      gap      omega  full diag
   1     -4.2309108 -0.423091E+01  0.245E+00   17.41       0.0  T
   2     -4.2434594 -0.125486E-01  0.920E-01   17.23       1.0  T
   3     -4.2436121 -0.152735E-03  0.502E-01   17.12       1.0  T
   4     -4.2436572 -0.450929E-04  0.954E-02   17.01       1.0  T
   5     -4.2436571  0.782767E-07  0.643E-03   17.01       7.0  T
   6     -4.2436573 -0.121711E-06  0.185E-04   17.01     241.3  T
   7     -4.2436573 -0.103791E-09  0.362E-06   17.01   12348.3  T

   *** convergence criteria satisfied after 7 iterations ***

         #    Occupation            Energy/Eh            Energy/eV
      -------------------------------------------------------------
         1        2.0000           -0.5806529             -15.8004
         2        2.0000           -0.4669587             -12.7066
         3        2.0000           -0.4669551             -12.7065
         4        2.0000           -0.4669481             -12.7063 (HOMO)
         5                          0.1581312               4.3030 (LUMO)
         6                          0.2184023               5.9430
         7                          0.2184380               5.9440
         8                          0.2184472               5.9442
      -------------------------------------------------------------
                  HL-Gap            0.6250793 Eh           17.0093 eV
             Fermi-level           -0.1544084 Eh           -4.2017 eV

 SCC (total)                   0 d,  0 h,  0 min,  0.022 sec
 SCC setup                      ...        0 min,  0.001 sec (  2.677%)
 Dispersion                     ...        0 min,  0.001 sec (  3.746%)
 classical contributions        ...        0 min,  0.002 sec (  8.256%)
 integral evaluation            ...        0 min,  0.001 sec (  3.708%)
 iterations                     ...        0 min,  0.011 sec ( 53.223%)
 molecular gradient             ...        0 min,  0.006 sec ( 26.114%)
 printout                       ...        0 min,  0.000 sec (  2.112%)

         :::::::::::::::::::::::::::::::::::::::::::::::::::::
         ::                     SUMMARY                     ::
         :::::::::::::::::::::::::::::::::::::::::::::::::::::
         :: total energy              -4.175098918169 Eh    ::
         :: gradient norm              0.009196816926 Eh/a0 ::
         :: HOMO-LUMO gap             17.009273772953 eV    ::
         ::.................................................::
         :: SCC energy                -4.243657271286 Eh    ::
         :: -> isotropic ES            0.001980361021 Eh    ::
         :: -> anisotropic ES          0.002456532646 Eh    ::
         :: -> anisotropic XC          0.003749932430 Eh    ::
         :: -> dispersion             -0.000662134238 Eh    ::
         :: repulsion energy           0.068558347273 Eh    ::
         :: add. restraining           0.000000000000 Eh    ::
         :: total charge              -0.000000000000 e     ::
         :::::::::::::::::::::::::::::::::::::::::::::::::::::

           -------------------------------------------------
          |                Property Printout                |
           -------------------------------------------------

    * Orbital Energies and Occupations

         #    Occupation            Energy/Eh            Energy/eV
      -------------------------------------------------------------
         1        2.0000           -0.5806529             -15.8004
         2        2.0000           -0.4669587             -12.7066
         3        2.0000           -0.4669551             -12.7065
         4        2.0000           -0.4669481             -12.7063 (HOMO)
         5                          0.1581312               4.3030 (LUMO)
         6                          0.2184023               5.9430
         7                          0.2184380               5.9440
         8                          0.2184472               5.9442
      -------------------------------------------------------------
                  HL-Gap            0.6250793 Eh           17.0093 eV
             Fermi-level           -0.1544084 Eh           -4.2017 eV

     #   Z          covCN         q      C6AA      α(0)
     1   6 C        3.699    -0.153    23.644     6.954
     2   1 H        0.925     0.038     2.472     2.459
     3   1 H        0.925     0.038     2.472     2.459
     4   1 H        0.925     0.038     2.472     2.459
     5   1 H        0.925     0.038     2.472     2.459

 Mol. C6AA /au·bohr⁶  :        123.981098
 Mol. C8AA /au·bohr⁸  :       2298.523038
 Mol. α(0) /au        :         16.789040


Wiberg/Mayer (AO) data.
largest (>0.10) Wiberg bond orders for each atom

 ---------------------------------------------------------------------------
     #   Z sym  total        # sym  WBO       # sym  WBO       # sym  WBO
 ---------------------------------------------------------------------------
     1   6 C    3.994 --     2 H    0.998     4 H    0.998     5 H    0.998
                             3 H    0.998
     2   1 H    0.999 --     1 C    0.998
     3   1 H    0.999 --     1 C    0.998
     4   1 H    0.999 --     1 C    0.998
     5   1 H    0.999 --     1 C    0.998
 ---------------------------------------------------------------------------

Topologies differ in total number of bonds
Writing topology from bond orders to xtbtopo.mol

molecular dipole:
                 x           y           z       tot (Debye)
 q only:        0.000       0.000      -0.000
   full:        0.000       0.000      -0.000       0.000
molecular quadrupole (traceless):
                xx          xy          yy          xz          yz          zz
 q only:       -0.000      -0.000       0.000      -0.000      -0.000      -0.000
  q+dip:       -0.000      -0.000       0.000      -0.000      -0.000       0.000
   full:       -0.000      -0.000       0.000      -0.000      -0.000       0.000


           -------------------------------------------------
          | TOTAL ENERGY               -4.175098918169 Eh   |
          | GRADIENT NORM               0.009196816926 Eh/α |
          | HOMO-LUMO GAP              17.009273772953 eV   |
           -------------------------------------------------

------------------------------------------------------------------------
 * finished run on 2025/06/26 at 20:02:04.458     
------------------------------------------------------------------------
 total:
 * wall-time:     0 d,  0 h,  0 min,  0.041 sec
 *  cpu-time:     0 d,  0 h,  0 min,  0.673 sec
 * ratio c/w:    16.337 speedup
 SCF:
 * wall-time:     0 d,  0 h,  0 min,  0.022 sec
 *  cpu-time:     0 d,  0 h,  0 min,  0.409 sec
 * ratio c/w:    18.516 speedup

